 Q-Chem 6.0, Q-Chem, Inc., Pleasanton, CA (2022)
 Q-Chem 6.0.2 for Intel X86 EM64T Linux

User input:
--------------------------------------------------------------
$rem
JOBTYPE Freq
EXCHANGE HF
BASIS cc-pVTZ
GUI=2
$end

$molecule
0 1
C 0.5625564505 -1.2630382788 -0.0000000000
C -0.8125449922 -1.1187073105 -0.0000000000
C 1.3751014434 -0.1443309749 0.0000000000
C 0.8125449922 1.1187073105 -0.0000000000
C -0.5625564505 1.2630382788 -0.0000000000
C -1.3751014434 0.1443309749 -0.0000000000
H 0.9992934054 -2.2435900151 0.0000000000
H -1.4433589500 -1.9872086629 -0.0000000000
H 2.4426526484 -0.2563813992 0.0000000000
H 1.4433589500 1.9872086629 0.0000000000
H -0.9992934054 2.2435900151 0.0000000000
H -2.4426526484 0.2563813992 -0.0000000000
$end
--------------------------------------------------------------

             Standard Nuclear Orientation (Angstroms)
    I     Atom           X                Y                Z
 ----------------------------------------------------------------
    1      C       1.3225847298    -0.4031191961     0.0000000000
    2      C       1.0104038256     0.9438323580    -0.0000000000
    3      C       0.3121809108    -1.3469515540     0.0000000000
    4      C      -1.0104038256    -0.9438323580     0.0000000000
    5      C      -1.3225847298     0.4031191961    -0.0000000000
    6      C      -0.3121809108     1.3469515540    -0.0000000000
    7      H       2.3493649540    -0.7160780537    -0.0000000000
    8      H       1.7948244780     1.6765704344    -0.0000000000
    9      H       0.5545405586    -2.3926487731     0.0000000000
   10      H      -1.7948244780    -1.6765704344     0.0000000000
   11      H      -2.3493649540     0.7160780537     0.0000000000
   12      H      -0.5545405586     2.3926487731    -0.0000000000
 ----------------------------------------------------------------

   10    -230.7805106511      2.06e-09  Convergence criterion met
 Total energy in the final basis set =     -230.7805106511

             Orbital Energies (a.u.) and Symmetries
 --------------------------------------------------------------

 Alpha MOs, Restricted
 -- Occupied --
-11.229 -11.228 -11.228 -11.227 -11.227 -11.227  -1.155  -1.017
  1 Ag    1 Bu    2 Bu    2 Ag    3 Ag    3 Bu    4 Ag    4 Bu
 -1.017  -0.825  -0.825  -0.713  -0.643  -0.621  -0.589  -0.589
  5 Bu    5 Ag    6 Ag    7 Ag    6 Bu    7 Bu    8 Bu    9 Bu
 -0.505  -0.494  -0.494  -0.337  -0.337
  1 Au    8 Ag    9 Ag    1 Bg    2 Bg

 Beta MOs, Restricted
 -- Occupied --
-11.229 -11.228 -11.228 -11.227 -11.227 -11.227  -1.155  -1.017
  1 Ag    1 Bu    2 Bu    2 Ag    3 Ag    3 Bu    4 Ag    4 Bu
 -1.017  -0.825  -0.825  -0.713  -0.643  -0.621  -0.589  -0.589
  5 Bu    5 Ag    6 Ag    7 Ag    6 Bu    7 Bu    8 Bu    9 Bu
 -0.505  -0.494  -0.494  -0.337  -0.337
  1 Au    8 Ag    9 Ag    1 Bg    2 Bg

          Ground-State Mulliken Net Atomic Charges

     Atom                 Charge (a.u.)
  ----------------------------------------
      1 C                    -0.152675
      2 C                    -0.152675
      3 C                    -0.152675
      4 C                    -0.152675
      5 C                    -0.152675
      6 C                    -0.152675
      7 H                     0.152675
      8 H                     0.152675
      9 H                     0.152675
     10 H                     0.152675
     11 H                     0.152675
     12 H                     0.152675
  ----------------------------------------
  Sum of atomic charges =     0.000000

                    Cartesian Multipole Moments
 -----------------------------------------------------------------
    Charge (ESU x 10^10)
                -0.0000
    Dipole Moment (Debye)
         X       0.0000      Y      -0.0000      Z      -0.0000
       Tot       0.0000
    Quadrupole Moments (Debye-Ang)
        XX     -31.7993     XY       0.0000     YY     -31.7993
        XZ      -0.0000     YZ       0.0000     ZZ     -40.3665

 Frequency:       451.63                 451.65                 662.95
 Force Cnst:      0.3445                 0.3445                 1.5720
 Red. Mass:       2.8666                 2.8667                 6.0706
 IR Intens:        0.000                  0.000                  0.000
 Frequency:       662.96                 758.78                 775.97
 Force Cnst:      1.5720                 0.3680                 1.1651
 Red. Mass:       6.0706                 1.0848                 3.2842
 IR Intens:        0.000                128.015                  0.000
 Frequency:       956.08                 956.08                1072.67
 Force Cnst:      0.6717                 0.6717                 4.0677
 Red. Mass:       1.2472                 1.2472                 6.0001
 IR Intens:        0.000                  0.000                  0.000
 Frequency:      1095.42                1100.23                1100.23
 Force Cnst:      4.6092                 0.9814                 0.9814
 Red. Mass:       6.5195                 1.3760                 1.3760
 IR Intens:        0.000                  0.000                  0.000
 Frequency:      1127.43                1129.62                1129.69
 Force Cnst:      0.9713                 1.3125                 1.3125
 Red. Mass:       1.2969                 1.7457                 1.7456
 IR Intens:        0.000                  3.520                  3.520
 Frequency:      1171.26                1281.77                1281.77
 Force Cnst:      1.9886                 1.1163                 1.1164
 Red. Mass:       2.4603                 1.1533                 1.1533
 IR Intens:        0.000                  0.000                  0.000
 Frequency:      1336.90                1498.22                1635.07
 Force Cnst:      1.5738                 1.6494                 3.0732
 Red. Mass:       1.4945                 1.2472                 1.9510
 IR Intens:        0.000                  0.000                 11.727
 Frequency:      1635.10                1775.02                1775.02
 Force Cnst:      3.0735                 9.2201                 9.2204
 Red. Mass:       1.9512                 4.9668                 4.9670
 IR Intens:       11.726                  0.000                  0.000
 Frequency:      3305.12                3316.97                3316.98
 Force Cnst:      6.9793                 7.0617                 7.0617
 Red. Mass:       1.0844                 1.0894                 1.0894
 IR Intens:        0.000                  0.000                  0.000
 Frequency:      3336.16                3336.16                3347.79
 Force Cnst:      7.1904                 7.1904                 7.2653
 Red. Mass:       1.0965                 1.0965                 1.1002
 IR Intens:       49.286                 49.286                  0.000

 STANDARD THERMODYNAMIC QUANTITIES AT   298.15 K  AND     1.00 ATM

   This Molecule has  0 Imaginary Frequencies
   Zero point vibrational energy:       66.876 kcal/mol

   Atom    1 Element C  Has Mass   12.00000
   Atom    2 Element C  Has Mass   12.00000
   Atom    3 Element C  Has Mass   12.00000
   Atom    4 Element C  Has Mass   12.00000
   Atom    5 Element C  Has Mass   12.00000
   Atom    6 Element C  Has Mass   12.00000
   Atom    7 Element H  Has Mass    1.00783
   Atom    8 Element H  Has Mass    1.00783
   Atom    9 Element H  Has Mass    1.00783
   Atom   10 Element H  Has Mass    1.00783
   Atom   11 Element H  Has Mass    1.00783
   Atom   12 Element H  Has Mass    1.00783
   Molecular Mass:    78.046980 amu
   Principal axes and moments of inertia in amu*Bohr^2:
                             1           2           3
    Eigenvalues --      310.90055   310.90057   621.80112
          X               0.99736     0.07263     0.00000
          Y              -0.07263     0.99736     0.00000
          Z              -0.00000    -0.00000     1.00000
   Rotational Symmetry Number is   2
   The Molecule is an Asymmetric Top
   Translational Enthalpy:        0.889 kcal/mol
   Rotational Enthalpy:           0.889 kcal/mol
   Vibrational Enthalpy:         67.681 kcal/mol
   gas constant (RT):             0.592 kcal/mol
   Translational Entropy:        38.979  cal/mol.K
   Rotational Entropy:           24.222  cal/mol.K
   Vibrational Entropy:           3.568  cal/mol.K

   Total Enthalpy:               70.051 kcal/mol
   Total Entropy:                66.769  cal/mol.K
 Total job time:  917.52s(wall), 912.75s(cpu)
        *  Thank you very much for using Q-Chem.  Have a nice day.  *
