 Q-Chem 6.0, Q-Chem, Inc., Pleasanton, CA (2022)
 Q-Chem 6.0.2 for Intel X86 EM64T Linux

User input:
--------------------------------------------------------------
$rem
JOBTYPE Freq
EXCHANGE HF
BASIS cc-pVTZ
GUI=2
$end
$molecule
0 1
H 1.2208067629 -0.9144670817 0.0000007090
C 0.6569338598 0.0000259242 0.0000024916
H 1.2208423069 0.9144970870 0.0000005495
C -0.6569852352 0.0000519602 0.0000055937
H -1.2208949556 -0.9144183896 0.0000075157
H -1.2208575844 0.9145454184 0.0000076725
$end
--------------------------------------------------------------

             Standard Nuclear Orientation (Angstroms)
    I     Atom           X                Y                Z
 ----------------------------------------------------------------
    1      H       1.2208506072    -0.9144819241     0.0000000000
    2      C       0.6569595926     0.0000000000     0.0000000000
    3      H       1.2208506072     0.9144819241     0.0000001481
    4      C      -0.6569595926     0.0000000860     0.0000001555
    5      H      -1.2208506072    -0.9144819241     0.0000001481
    6      H      -1.2208506072     0.9144819241    -0.0000001481
 ----------------------------------------------------------------

   10     -78.0641944152      2.18e-09  Convergence criterion met
 Total energy in the final basis set =      -78.0641944152

             Orbital Energies (a.u.) and Symmetries
 --------------------------------------------------------------

 Alpha MOs, Restricted
 -- Occupied --
-11.224 -11.222  -1.039  -0.793  -0.646  -0.591  -0.505  -0.381
  1 Ag    1 B3u   2 Ag    2 B3u   1 B2u   3 Ag    1 B1g   1 B1u

 Beta MOs, Restricted
 -- Occupied --
-11.224 -11.222  -1.039  -0.793  -0.646  -0.591  -0.505  -0.381
  1 Ag    1 B3u   2 Ag    2 B3u   1 B2u   3 Ag    1 B1g   1 B1u

          Ground-State Mulliken Net Atomic Charges

     Atom                 Charge (a.u.)
  ----------------------------------------
      1 H                     0.139405
      2 C                    -0.278803
      3 H                     0.139398
      4 C                    -0.278803
      5 H                     0.139387
      6 H                     0.139416
  ----------------------------------------
  Sum of atomic charges =     0.000000

                    Cartesian Multipole Moments
 -----------------------------------------------------------------
    Charge (ESU x 10^10)
                 0.0000
    Dipole Moment (Debye)
         X       0.0000      Y      -0.0000      Z       0.0000
       Tot       0.0000
    Quadrupole Moments (Debye-Ang)
        XX     -12.1268     XY       0.0000     YY     -12.3471
        XZ      -0.0000     YZ       0.0000     ZZ     -15.7517

 Frequency:       890.51                1085.16                1104.97
 Force Cnst:      0.4871                 0.8053                 1.0923
 Red. Mass:       1.0424                 1.1607                 1.5185
 IR Intens:        0.011                111.292                  0.000
 Frequency:      1142.83                1343.24                1474.82
 Force Cnst:      0.7755                 1.6204                 1.6105
 Red. Mass:       1.0078                 1.5243                 1.2567
 IR Intens:        0.000                  0.000                  0.000
 Frequency:      1588.71                1819.88                3267.50
 Force Cnst:      1.6539                 5.6806                 6.5898
 Red. Mass:       1.1121                 2.9111                 1.0476
 IR Intens:       11.929                  0.000                 20.658
 Frequency:      3289.73                3339.52                3368.82
 Force Cnst:      6.8671                 7.3293                 7.4757
 Red. Mass:       1.0770                 1.1154                 1.1180
 IR Intens:        0.000                  0.000                 30.444

 STANDARD THERMODYNAMIC QUANTITIES AT   298.15 K  AND     1.00 ATM

   This Molecule has  0 Imaginary Frequencies
   Zero point vibrational energy:       33.903 kcal/mol

   Atom    1 Element H  Has Mass    1.00783
   Atom    2 Element C  Has Mass   12.00000
   Atom    3 Element H  Has Mass    1.00783
   Atom    4 Element C  Has Mass   12.00000
   Atom    5 Element H  Has Mass    1.00783
   Atom    6 Element H  Has Mass    1.00783
   Molecular Mass:    28.031320 amu
   Principal axes and moments of inertia in amu*Bohr^2:
                             1           2           3
    Eigenvalues --       12.03913    58.44722    70.48635
          X               1.00000     0.00000     0.00000
          Y              -0.00000     1.00000     0.00000
          Z              -0.00000    -0.00000     1.00000
   Rotational Symmetry Number is   4
   The Molecule is an Asymmetric Top
   Translational Enthalpy:        0.889 kcal/mol
   Rotational Enthalpy:           0.889 kcal/mol
   Vibrational Enthalpy:         33.996 kcal/mol
   gas constant (RT):             0.592 kcal/mol
   Translational Entropy:        35.927  cal/mol.K
   Rotational Entropy:           15.790  cal/mol.K
   Vibrational Entropy:           0.372  cal/mol.K

   Total Enthalpy:               36.366 kcal/mol
   Total Entropy:                52.089  cal/mol.K
 Total job time:  32.27s(wall), 30.42s(cpu)
        *  Thank you very much for using Q-Chem.  Have a nice day.  *
